21
dmog-orca.out	Energy:    -664.4728512
O          0.99450       -0.04584        0.08909
C          0.33801        0.77856       -0.74088
C          1.15828        1.70669       -1.67118
O         -0.88041        0.78273       -0.74377
C          2.42260       -0.18134        0.22633
N          0.43339        2.52960       -2.49403
O          2.39166        1.71962       -1.68685
C         -1.00621        2.70075       -2.66342
C         -1.57063        3.71729       -3.67471
O         -0.83082        4.52879       -4.48478
O         -2.77627        3.79659       -3.75230
C          0.59045        4.61072       -4.57067
H          2.55504       -0.95554        1.00538
H          2.88938        0.76892        0.54446
H          2.89016       -0.50493       -0.72169
H          1.06246        3.09578       -3.06318
H         -1.48368        2.97193       -1.70027
H         -1.48488        1.73920       -2.93840
H          0.80159        5.37900       -5.33770
H          1.04846        3.65756       -4.91300
H          1.05225        4.94928       -3.61801
