17
niz-ideal.out	Energy:    -472.0081705
C         -1.27055       -0.28003        0.41974
C          0.20329       -0.05693        0.19796
N          2.99223        0.21622       -0.18659
O         -1.72109       -1.33064        0.88076
C          0.80302        1.21461        0.10804
N         -2.09005        0.76395        0.05263
C          2.19324        1.29116       -0.08354
N         -3.48764        0.62288        0.08265
C          2.41386       -0.99465       -0.08571
C          1.03804       -1.18618        0.11232
H          0.21386        2.13820        0.21672
H          2.68612        2.27779       -0.15067
H         -3.67709       -0.38435       -0.05913
H          3.08778       -1.86632       -0.16561
H          0.59523       -2.18856        0.20595
H         -1.74038        1.48474       -0.58301
H         -3.79881        0.80288        1.05062
