14
pza-model.out	Energy:    -432.7539065
C         -6.65691        2.80415        5.34585
N         -6.59759        3.88944        4.52649
O         -7.55386        2.56715        6.15477
C         -3.49873        1.32964        4.15343
C         -3.42192        0.16096        4.93517
N         -4.36607       -0.15976        5.83608
C         -5.39290        0.69719        5.95348
C         -5.47490        1.86894        5.17361
N         -4.52530        2.18511        4.27165
H         -5.79799        3.97800        3.89445
H         -7.34097        4.58560        4.55702
H         -2.71281        1.57553        3.41804
H         -2.56983       -0.53321        4.82607
H         -6.19034        0.47307        6.68089
