117
rfp-model-b3lyp.out	Energy:   -2791.8135929
C         48.67425       97.69844       24.68107
C         48.31752       96.62336       25.50299
C         49.28608       95.61361       25.81683
C         50.60201       95.71732       25.31858
C         52.28785       96.95398       23.91584
C         52.56329       98.03812       23.06098
C         51.65751       99.05434       22.76496
C         50.38173       98.93262       23.33947
C         50.01155       97.82260       24.20134
C         50.98280       96.81757       24.50786
C         53.43744       96.10842       23.87399
C         54.47060       96.80012       22.94604
C         55.73578       97.19994       23.67504
C         51.99059      100.20956       21.86549
C         45.99713       97.28795       26.24912
C         44.78747       96.71005       26.90101
C         44.32115       95.45537       26.66457
C         44.82490       94.44849       25.74782
C         44.41040       93.16783       25.78590
C         44.96311       92.01047       24.99482
C         46.00936       92.43727       23.95088
C         46.68534       91.25674       23.22170
C         47.66966       91.73557       22.13147
C         48.75311       92.74661       22.58296
C         49.57038       93.21076       21.36048
C         50.52295       94.39312       21.61114
C         51.63937       94.47676       20.54539
C         52.66322       95.51249       20.92322
C         53.89994       95.16810       21.29446
C         44.06249       97.66909       27.80752
C         45.52146       90.97679       25.98696
C         45.67908       90.28030       22.60182
C         49.63133       92.18291       23.70096
C         49.69307       95.68002       21.65937
C         49.90373       91.44707       19.75957
C         50.94757       90.51124       19.21168
C         51.85935       94.73785       18.18883
C         46.84805       90.23735       30.94959
C         48.20917       91.06353       29.14356
C         48.72436       92.30846       28.42978
C         46.57065       93.38496       28.92576
C         46.11817       92.11043       29.61770
C         49.01841       94.44616       26.65742
N         47.02007       96.42953       26.01978
N         47.85865       94.19467       27.17049
N         47.61406       93.11223       27.93999
N         47.25321       91.39848       30.18383
O         47.76734       98.61679       24.26759
O         49.51308       99.88353       23.02837
O         53.78713       97.98902       22.48812
O         53.67930       95.01778       24.40382
O         54.83828       95.99247       21.86383
O         51.00542       94.73112       19.30257
O         50.34110       92.08894       20.84540
O         48.80761       91.60675       19.25881
O         46.89688       92.28168       21.07148
O         45.38001       93.32853       23.04869
O         46.03511       98.51214       26.00380
O         51.44947       94.72593       25.64330
H         56.42536       97.68025       22.96630
H         55.49832       97.90168       24.48670
H         56.20276       96.29899       24.09735
H         51.18499      100.38537       21.13708
H         52.09866      101.14044       22.44820
H         52.93100      100.02884       21.32871
H         43.43525       95.15843       27.24012
H         45.56741       94.73990       25.00594
H         43.64290       92.89513       26.52300
H         44.11961       91.55719       24.44224
H         46.80803       92.97122       24.50949
H         47.28548       90.71218       23.96656
H         48.18924       90.82633       21.77210
H         48.22623       93.64319       22.94778
H         48.87747       93.51022       20.56775
H         51.04055       94.25511       22.57313
H         52.14656       93.49433       20.50491
H         52.33727       96.55166       20.97698
H         54.27288       94.14288       21.19078
H         43.23656       97.16654       28.33148
H         44.74206       98.10942       28.55616
H         43.65690       98.51193       27.22411
H         45.80708       90.03681       25.49297
H         46.40203       91.39237       26.50004
H         44.77379       90.73114       26.75769
H         46.19769       89.51438       22.00272
H         45.08784       89.76042       23.36987
H         44.98949       90.81397       21.93410
H         50.37783       92.91043       24.04951
H         49.02423       91.90388       24.57456
H         50.16788       91.28491       23.35528
H         50.33412       96.56214       21.76512
H         49.11275       95.79583       20.73307
H         48.99918       95.67759       22.51071
H         50.47429       89.76656       18.55999
H         51.66295       91.10352       18.61755
H         51.50875       90.02912       20.02418
H         51.23904       94.93692       17.30259
H         52.64045       95.51682       18.26421
H         52.37517       93.76356       18.05501
H         46.17710       90.53904       31.76912
H         46.31138       89.47872       30.33361
H         47.72906       89.74714       31.39403
H         47.76574       90.37157       28.38982
H         49.06631       90.53968       29.59621
H         49.36258       92.91060       29.11044
H         49.34744       91.99519       27.57897
H         45.73396       93.85904       28.39608
H         46.95132       94.09727       29.68539
H         45.41977       92.37932       30.42615
H         45.55628       91.47259       28.89980
H         49.88274       93.79882       26.81898
H         46.94240       95.51294       26.49490
H         47.01359       98.71478       24.97091
H         48.63996       99.64355       23.44231
H         47.39343       92.15101       20.23951
H         45.77777       93.21094       22.16753
H         52.35120       94.78864       25.20888
